# vtk DataFile Version 2.0
cylinder2d, Created by Gmsh 4.11.1 
ASCII
DATASET UNSTRUCTURED_GRID
POINTS 132 double
0 0 0
3 0 0
3 1 0
0 1 0
0.7 0.5 0
0.5 0.7 0
0.3 0.5 0
0.5 0.3 0
0.09999999999955492 0 0
0.1999999999991203 0 0
0.2999999999987617 0 0
0.3999999999983593 0 0
0.4999999999978253 0 0
0.5999999999974546 0 0
0.6999999999970983 0 0
0.799999999996742 0 0
0.8999999999963859 0 0
0.9999999999960294 0 0
1.099999999995673 0 0
1.199999999995317 0 0
1.299999999994961 0 0
1.399999999994604 0 0
1.499999999994291 0 0
1.599999999994632 0 0
1.699999999995016 0 0
1.799999999995399 0 0
1.899999999995782 0 0
1.999999999996166 0 0
2.099999999996549 0 0
2.199999999996932 0 0
2.299999999997316 0 0
2.3999999999977 0 0
2.499999999998083 0 0
2.599999999998466 0 0
2.69999999999885 0 0
2.799999999999233 0 0
2.899999999999617 0 0
3 0.09999999999981467 0
3 0.1999999999995579 0
3 0.2999999999992664 0
3 0.3999999999989749 0
3 0.4999999999986943 0
3 0.5999999999989468 0
3 0.69999999999921 0
3 0.7999999999994734 0
3 0.8999999999997368 0
2.900000000001199 1 0
2.800000000002174 1 0
2.700000000001933 1 0
2.600000000002023 1 0
2.500000000003165 1 0
2.400000000003 1 0
2.300000000002719 1 0
2.200000000002438 1 0
2.100000000002157 1 0
2.000000000001934 1 0
1.900000000002364 1 0
1.800000000002824 1 0
1.700000000003284 1 0
1.600000000003743 1 0
1.500000000004159 1 0
1.400000000003922 1 0
1.300000000003642 1 0
1.200000000003361 1 0
1.100000000003082 1 0
1.000000000002801 1 0
0.900000000002521 1 0
0.8000000000022411 1 0
0.7000000000019608 1 0
0.600000000001681 1 0
0.5000000000014007 1 0
0.4000000000011208 1 0
0.30000000000084 1 0
0.2000000000005602 1 0
0.1000000000002803 1 0
0 0.8999999999995836 0
0 0.7999999999999998 0
0 0.7000000000006934 0
0 0.6000000000013869 0
0 0.5000000000020587 0
0 0.4000000000016644 0
0 0.3000000000012483 0
0 0.2000000000008322 0
0 0.100000000000416 0
0.6985417748104636 0.5241073361263985 0
0.6941883634472171 0.5478631330116561 0
0.6870032484540671 0.5709209776274019 0
0.6770912050043505 0.5929446346493819 0
0.6645967730055931 0.6136129495970651 0
0.6497021493839505 0.6326245319306549 0
0.6326245313670882 0.6497021498832273 0
0.6136129490988277 0.6645967733495015 0
0.5929446342538147 0.6770912052119602 0
0.5709209773267309 0.6870032485680966 0
0.5478631327759519 0.694188363505313 0
0.5241073360260229 0.6985417748226513 0
0.4758926638625755 0.6985417748091247 0
0.4521368670029734 0.694188363450823 0
0.4290790223432828 0.6870032484429492 0
0.4070553653359612 0.677091204996658 0
0.3863870503583891 0.6645967729748453 0
0.3673754680020653 0.649702149324346 0
0.3502978500913197 0.6326245313383576 0
0.3354032266273522 0.6136129490652945 0
0.3229087947603469 0.5929446342010503 0
0.3129967514200764 0.5709209772955456 0
0.3058116364919502 0.5478631327648482 0
0.301458225176647 0.5241073360202445 0
0.3014582251903389 0.4758926638669921 0
0.3058116365578198 0.452136866967908 0
0.3129967515350216 0.4290790224013687 0
0.3229087949977544 0.4070553653466074 0
0.3354032270000695 0.3863870503947311 0
0.3502978506301652 0.3673754680534115 0
0.3673754687095188 0.3502978500489049 0
0.3863870509470198 0.3354032266188522 0
0.4070553658281769 0.3229087947450072 0
0.4290790227497113 0.3129967514029127 0
0.4521368672573924 0.3058116364864683 0
0.475892664003335 0.3014582251737838 0
0.5241073361115843 0.3014582251877376 0
0.5478631329947294 0.3058116365486108 0
0.5709209775761305 0.3129967515264882 0
0.5929446345961696 0.3229087949677215 0
0.6136129495945343 0.3354032269926599 0
0.6326245319610398 0.350297850642968 0
0.6497021499553045 0.3673754687142702 0
0.6645967733957592 0.386387050968188 0
0.6770912052509876 0.4070553658205457 0
0.6870032485910511 0.4290790227337952 0
0.6941883635125716 0.4521368672534973 0
0.6985417748254759 0.4758926639972383 0

CELLS 132 396
2 0 8
2 8 9
2 9 10
2 10 11
2 11 12
2 12 13
2 13 14
2 14 15
2 15 16
2 16 17
2 17 18
2 18 19
2 19 20
2 20 21
2 21 22
2 22 23
2 23 24
2 24 25
2 25 26
2 26 27
2 27 28
2 28 29
2 29 30
2 30 31
2 31 32
2 32 33
2 33 34
2 34 35
2 35 36
2 36 1
2 1 37
2 37 38
2 38 39
2 39 40
2 40 41
2 41 42
2 42 43
2 43 44
2 44 45
2 45 2
2 2 46
2 46 47
2 47 48
2 48 49
2 49 50
2 50 51
2 51 52
2 52 53
2 53 54
2 54 55
2 55 56
2 56 57
2 57 58
2 58 59
2 59 60
2 60 61
2 61 62
2 62 63
2 63 64
2 64 65
2 65 66
2 66 67
2 67 68
2 68 69
2 69 70
2 70 71
2 71 72
2 72 73
2 73 74
2 74 3
2 3 75
2 75 76
2 76 77
2 77 78
2 78 79
2 79 80
2 80 81
2 81 82
2 82 83
2 83 0
2 4 84
2 84 85
2 85 86
2 86 87
2 87 88
2 88 89
2 89 90
2 90 91
2 91 92
2 92 93
2 93 94
2 94 95
2 95 5
2 5 96
2 96 97
2 97 98
2 98 99
2 99 100
2 100 101
2 101 102
2 102 103
2 103 104
2 104 105
2 105 106
2 106 107
2 107 6
2 6 108
2 108 109
2 109 110
2 110 111
2 111 112
2 112 113
2 113 114
2 114 115
2 115 116
2 116 117
2 117 118
2 118 119
2 119 7
2 7 120
2 120 121
2 121 122
2 122 123
2 123 124
2 124 125
2 125 126
2 126 127
2 127 128
2 128 129
2 129 130
2 130 131
2 131 4

CELL_TYPES 132
3
3
3
3
3
3
3
3
3
3
3
3
3
3
3
3
3
3
3
3
3
3
3
3
3
3
3
3
3
3
3
3
3
3
3
3
3
3
3
3
3
3
3
3
3
3
3
3
3
3
3
3
3
3
3
3
3
3
3
3
3
3
3
3
3
3
3
3
3
3
3
3
3
3
3
3
3
3
3
3
3
3
3
3
3
3
3
3
3
3
3
3
3
3
3
3
3
3
3
3
3
3
3
3
3
3
3
3
3
3
3
3
3
3
3
3
3
3
3
3
3
3
3
3
3
3
3
3
3
3
3
3

CELL_DATA 132
SCALARS CellEntityIds int 1
LOOKUP_TABLE default
3
3
3
3
3
3
3
3
3
3
3
3
3
3
3
3
3
3
3
3
3
3
3
3
3
3
3
3
3
3
2
2
2
2
2
2
2
2
2
2
4
4
4
4
4
4
4
4
4
4
4
4
4
4
4
4
4
4
4
4
4
4
4
4
4
4
4
4
4
4
1
1
1
1
1
1
1
1
1
1
5
5
5
5
5
5
5
5
5
5
5
5
5
5
5
5
5
5
5
5
5
5
5
5
5
5
5
5
5
5
5
5
5
5
5
5
5
5
5
5
5
5
5
5
5
5
5
5
5
5
5
5
